LAMMPS data file. CGCMM style. atom_style full generated by VMD/TopoTools v1.5 on Tue Jun 28 22:10:22 CEST 2016
 1 atoms
 1 atom types
 1 bond types
 0.0 100.0 xlo xhi
 0.0 100.0 ylo yhi
 0.0 100.0 zlo zhi

 Masses

 1 15.0 # CH3

 Atoms

1 1 1 50.0 50.0 50.0

